 Q-Chem 6.0, Q-Chem, Inc., Pleasanton, CA (2022)
 Q-Chem 6.0.1 for Intel X86 EM64T Linux

User input:
--------------------------------------------------------------
$molecule
0  5
C     -1.74008906      0.29424471      0.01483151
F     -2.43413244      0.16289239     -1.11397314
F     -1.49326607      1.58523514      0.20600084
F     -2.51928192     -0.13483322      1.00512401
C     -0.47684053     -0.50657763     -0.04878575
F     -0.68820274     -1.80333556     -0.25255718
C      0.75960124     -0.06735819      0.06982613
F      1.11033444      1.17118541      0.27210023
F      1.79548643     -0.86045148     -0.00668410
$end
$rem
JOBTYPE             Force
EXCHANGE            BHHLYP
BASIS               6-31+G*
UNRESTRICTED        True
MAX_SCF_CYCLES      500
SYM_IGNORE          True
SCF_Algorithm       DIIS

SPIN_FLIP           True
SET_Iter            500

MAX_CIS_CYCLES      500

CIS_N_ROOTS 1
CIS_STATE_DERIV 1
$end
--------------------------------------------------------------

             Standard Nuclear Orientation (Angstroms)
    I     Atom           X                Y                Z
 ----------------------------------------------------------------
    1      C      -1.7400890600     0.2942447100     0.0148315100
    2      F      -2.4341324400     0.1628923900    -1.1139731400
    3      F      -1.4932660700     1.5852351400     0.2060008400
    4      F      -2.5192819200    -0.1348332200     1.0051240100
    5      C      -0.4768405300    -0.5065776300    -0.0487857500
    6      F      -0.6882027400    -1.8033355600    -0.2525571800
    7      C       0.7596012400    -0.0673581900     0.0698261300
    8      F       1.1103344400     1.1711854100     0.2721002300
    9      F       1.7954864300    -0.8604514800    -0.0066841000
 ----------------------------------------------------------------

   23    -712.5227506423      5.50e-09  Convergence criterion met
 Total energy in the final basis set =     -712.5227506423

                    Orbital Energies (a.u.)
 --------------------------------------------------------------

 Alpha MOs
 -- Occupied --
-25.5292 -25.4291 -25.4219 -25.4215 -25.3923 -25.3888 -10.9451 -10.7740
-10.7514  -1.5831  -1.5515  -1.4867  -1.4599  -1.4543  -1.4243  -1.0364
 -0.9059  -0.8342  -0.7952  -0.7681  -0.7625  -0.7447  -0.7276  -0.7047
 -0.6917  -0.6709  -0.6322  -0.6293  -0.5995  -0.5866  -0.5862  -0.5836
 -0.5648  -0.5536  -0.5458  -0.4492  -0.1989  -0.1331

 Beta MOs
 -- Occupied --
-25.4902 -25.4238 -25.4169 -25.4165 -25.3851 -25.3812 -10.9420 -10.7524
-10.7253  -1.5416  -1.4781  -1.4640  -1.4456  -1.4411  -1.4060  -0.9444
 -0.8580  -0.7844  -0.7508  -0.7410  -0.7407  -0.7093  -0.6736  -0.6586
 -0.6131  -0.6098  -0.6063  -0.5778  -0.5735  -0.5628  -0.5570  -0.5438
 -0.5395  -0.5309

          Ground-State Mulliken Net Atomic Charges

     Atom                 Charge (a.u.)    Spin (a.u.)
  --------------------------------------------------------
      1 C                     1.094373       0.203554
      2 F                    -0.253877       0.054747
      3 F                    -0.305402       0.076032
      4 F                    -0.253379       0.055688
      5 C                    -0.501682       1.998662
      6 F                     0.247562       0.443971
      7 C                     0.572925       1.065932
      8 F                    -0.323066       0.064755
      9 F                    -0.277455       0.036659
  --------------------------------------------------------
  Sum of atomic charges =    -0.000000

                    Cartesian Multipole Moments
 -----------------------------------------------------------------
    Charge (ESU x 10^10)
                -0.0000
    Dipole Moment (Debye)
         X      -0.9275      Y       0.1136      Z      -0.0199
       Tot       0.9346
    Quadrupole Moments (Debye-Ang)
        XX     -50.4158     XY      -0.2939     YY     -50.2718
        XZ      -0.2186     YZ      -0.4226     ZZ     -47.5944

 Total job time:  98.92s(wall), 780.59s(cpu)
        *  Thank you very much for using Q-Chem.  Have a nice day.  *
