 Q-Chem 6.0, Q-Chem, Inc., Pleasanton, CA (2022)
 Q-Chem 6.0.1 for Intel X86 EM64T Linux

User input:
--------------------------------------------------------------
$molecule
0  5
C     -1.74220163      0.29199151      0.01878501
F     -2.43201182      0.17221054     -1.11152700
F     -1.48803678      1.58461996      0.20013759
F     -2.52011926     -0.13794633      1.00598586
C     -0.48719974     -0.50667013     -0.04759128
F     -0.68048958     -1.80514435     -0.24971364
C      0.75472465     -0.07677748      0.05589459
F      1.10935838      1.16720214      0.27478992
F      1.79321379     -0.85284770     -0.00411004
$end
$rem
JOBTYPE             Force
EXCHANGE            BHHLYP
BASIS               6-31+G*
UNRESTRICTED        True
MAX_SCF_CYCLES      500
SYM_IGNORE          True
SCF_Algorithm       DIIS

SPIN_FLIP           True
SET_Iter            500

MAX_CIS_CYCLES      500

CIS_N_ROOTS 1
CIS_STATE_DERIV 1
$end
--------------------------------------------------------------

             Standard Nuclear Orientation (Angstroms)
    I     Atom           X                Y                Z
 ----------------------------------------------------------------
    1      C      -1.7422016300     0.2919915100     0.0187850100
    2      F      -2.4320118200     0.1722105400    -1.1115270000
    3      F      -1.4880367800     1.5846199600     0.2001375900
    4      F      -2.5201192600    -0.1379463300     1.0059858600
    5      C      -0.4871997400    -0.5066701300    -0.0475912800
    6      F      -0.6804895800    -1.8051443500    -0.2497136400
    7      C       0.7547246500    -0.0767774800     0.0558945900
    8      F       1.1093583800     1.1672021400     0.2747899200
    9      F       1.7932137900    -0.8528477000    -0.0041100400
 ----------------------------------------------------------------

   23    -712.5217259523      4.19e-09  Convergence criterion met
 Total energy in the final basis set =     -712.5217259523

                    Orbital Energies (a.u.)
 --------------------------------------------------------------

 Alpha MOs
 -- Occupied --
-25.5318 -25.4267 -25.4230 -25.4206 -25.3911 -25.3894 -10.9434 -10.7749
-10.7519  -1.5858  -1.5517  -1.4875  -1.4591  -1.4550  -1.4231  -1.0378
 -0.9073  -0.8346  -0.7965  -0.7689  -0.7634  -0.7447  -0.7295  -0.7065
 -0.6906  -0.6712  -0.6318  -0.6291  -0.5992  -0.5869  -0.5856  -0.5830
 -0.5644  -0.5551  -0.5442  -0.4497  -0.1999  -0.1332

 Beta MOs
 -- Occupied --
-25.4928 -25.4213 -25.4179 -25.4155 -25.3834 -25.3823 -10.9403 -10.7532
-10.7259  -1.5415  -1.4808  -1.4648  -1.4449  -1.4414  -1.4051  -0.9459
 -0.8585  -0.7849  -0.7522  -0.7415  -0.7403  -0.7100  -0.6735  -0.6609
 -0.6128  -0.6091  -0.6065  -0.5769  -0.5734  -0.5633  -0.5565  -0.5427
 -0.5391  -0.5308

          Ground-State Mulliken Net Atomic Charges

     Atom                 Charge (a.u.)    Spin (a.u.)
  --------------------------------------------------------
      1 C                     1.100500       0.204163
      2 F                    -0.254126       0.056005
      3 F                    -0.308260       0.077688
      4 F                    -0.252190       0.055163
      5 C                    -0.500416       1.993729
      6 F                     0.250769       0.445321
      7 C                     0.563177       1.065526
      8 F                    -0.326377       0.064803
      9 F                    -0.273077       0.037602
  --------------------------------------------------------
  Sum of atomic charges =    -0.000000

                    Cartesian Multipole Moments
 -----------------------------------------------------------------
    Charge (ESU x 10^10)
                -0.0000
    Dipole Moment (Debye)
         X      -0.9196      Y      -0.0098      Z       0.0042
       Tot       0.9196
    Quadrupole Moments (Debye-Ang)
        XX     -50.3484     XY      -0.3304     YY     -50.3086
        XZ      -0.2508     YZ      -0.4167     ZZ     -47.5911

 Total job time:  99.24s(wall), 783.28s(cpu)
        *  Thank you very much for using Q-Chem.  Have a nice day.  *
