 Q-Chem 6.0, Q-Chem, Inc., Pleasanton, CA (2022)
 Q-Chem 6.0.1 for Intel X86 EM64T Linux

User input:
--------------------------------------------------------------
$molecule
0 1
C    0.00000000  0.00000000  0.00000000
C    0.95983561 -0.03463431  0.88938016
H    1.92501139 -0.01492534  0.38327022
H    0.87687370  0.83039849  1.54735857
H    0.43234114  0.03893555 -0.99983257
H   -0.61579655 -0.89435506  0.09499285
$end

$rem
Jobtype		OPT
EXCHANGE            BHHLYP !50% HF +  50% Becke88 exchange
BASIS               6-31+G*
UNRESTRICTED        True
MAX_SCF_CYCLES      500
SYM_IGNORE          True
SCF_Algorithm       DIIS
$end

--------------------------------------------------------------

   11     -78.4010613120      7.03e-09  Convergence criterion met
 Total energy in the final basis set =      -78.4010613120
   10     -78.4598824970      7.27e-09  Convergence criterion met
 Total energy in the final basis set =      -78.4598824970
   10     -78.4902521821      3.86e-09  Convergence criterion met
 Total energy in the final basis set =      -78.4902521821
    9     -78.5159015287      6.21e-09  Convergence criterion met
 Total energy in the final basis set =      -78.5159015287
   10     -78.5305997156      1.49e-09  Convergence criterion met
 Total energy in the final basis set =      -78.5305997156
   10     -78.5345930343      1.70e-09  Convergence criterion met
 Total energy in the final basis set =      -78.5345930343
    8     -78.5348039075      9.64e-09  Convergence criterion met
 Total energy in the final basis set =      -78.5348039075
    8     -78.5348613445      8.27e-09  Convergence criterion met
 Total energy in the final basis set =      -78.5348613445
    7     -78.5348629337      6.00e-09  Convergence criterion met
 Total energy in the final basis set =      -78.5348629337
    6     -78.5348630703      2.40e-09  Convergence criterion met
 Total energy in the final basis set =      -78.5348630703
 Final energy is -78.534863070268
	**  OPTIMIZATION CONVERGED  **
 Total job time:  17.22s(wall), 105.54s(cpu)
        *  Thank you very much for using Q-Chem.  Have a nice day.  *
 Q-Chem 6.0, Q-Chem, Inc., Pleasanton, CA (2022)
 Q-Chem 6.0.1 for Intel X86 EM64T Linux

User input:
--------------------------------------------------------------

$molecule
read
$end

$rem
Jobtype	FREQ
EXCHANGE            BHHLYP
BASIS               6-31+G*
$end
--------------------------------------------------------------

             Standard Nuclear Orientation (Angstroms)
    I     Atom           X                Y                Z
 ----------------------------------------------------------------
    1      C       0.6620356887    -0.0000098945     0.0000098098
    2      C      -0.6620354528    -0.0000028171    -0.0000096656
    3      H      -1.2295124680     0.9177276381     0.0000186054
    4      H      -1.2296349986    -0.9176625933     0.0000124203
    5      H       1.2295631332     0.9177011252    -0.0000190382
    6      H       1.2295829182    -0.9176899008    -0.0000128527
 ----------------------------------------------------------------

    9     -78.5348409503      3.11e-09  Convergence criterion met
 Total energy in the final basis set =      -78.5348409503

                    Orbital Energies (a.u.)
 --------------------------------------------------------------

 Alpha MOs
 -- Occupied --
-10.5964 -10.5952  -0.8772  -0.6731  -0.5479  -0.4967  -0.4241  -0.3234

          Ground-State Mulliken Net Atomic Charges

     Atom                 Charge (a.u.)
  ----------------------------------------
      1 C                    -0.382431
      2 C                    -0.382431
      3 H                     0.191211
      4 H                     0.191220
      5 H                     0.191215
      6 H                     0.191217
  ----------------------------------------
  Sum of atomic charges =     0.000000

                    Cartesian Multipole Moments
 -----------------------------------------------------------------
    Charge (ESU x 10^10)
                -0.0000
    Dipole Moment (Debye)
         X      -0.0000      Y       0.0000      Z      -0.0000
       Tot       0.0000
    Quadrupole Moments (Debye-Ang)
        XX     -12.2172     XY       0.0001     YY     -12.3469
        XZ      -0.0001     YZ       0.0000     ZZ     -16.0133

 Frequency:       864.71                1023.41                1025.00
 Force Cnst:      0.4592                 0.7163                 0.9396
 Red. Mass:       1.0424                 1.1607                 1.5179
 IR Intens:        0.920                131.158                  0.000
 Frequency:      1095.52                1292.26                1437.28
 Force Cnst:      0.7127                 1.4964                 1.5071
 Red. Mass:       1.0078                 1.5209                 1.2382
 IR Intens:        0.000                  0.000                  0.000
 Frequency:      1541.37                1770.84                3250.37
 Force Cnst:      1.5562                 5.6105                 6.5230
 Red. Mass:       1.1118                 3.0367                 1.0479
 IR Intens:        8.235                  0.000                 16.992
 Frequency:      3267.12                3324.98                3350.88
 Force Cnst:      6.7559                 7.2707                 7.3964
 Red. Mass:       1.0742                 1.1162                 1.1180
 IR Intens:        0.000                  0.000                 25.559

 STANDARD THERMODYNAMIC QUANTITIES AT   298.15 K  AND     1.00 ATM

   This Molecule has  0 Imaginary Frequencies
   Zero point vibrational energy:       33.229 kcal/mol

   Atom    1 Element C  Has Mass   12.00000
   Atom    2 Element C  Has Mass   12.00000
   Atom    3 Element H  Has Mass    1.00783
   Atom    4 Element H  Has Mass    1.00783
   Atom    5 Element H  Has Mass    1.00783
   Atom    6 Element H  Has Mass    1.00783
   Molecular Mass:    28.031320 amu
   Principal axes and moments of inertia in amu*Bohr^2:
                             1           2           3
    Eigenvalues --       12.12389    59.32874    71.45263
          X               1.00000     0.00000    -0.00000
          Y              -0.00000     1.00000     0.00000
          Z               0.00000    -0.00000     1.00000
   Rotational Symmetry Number is   1
   The Molecule is an Asymmetric Top
   Translational Enthalpy:        0.889 kcal/mol
   Rotational Enthalpy:           0.889 kcal/mol
   Vibrational Enthalpy:         33.340 kcal/mol
   gas constant (RT):             0.592 kcal/mol
   Translational Entropy:        35.927  cal/mol.K
   Rotational Entropy:           18.581  cal/mol.K
   Vibrational Entropy:           0.451  cal/mol.K

   Total Enthalpy:               35.710 kcal/mol
   Total Entropy:                54.958  cal/mol.K
 Total job time:  5.10s(wall), 28.04s(cpu)
        *  Thank you very much for using Q-Chem.  Have a nice day.  *
